
;
[ moleculetype ]
; Name            nrexcl
BIC               3
;
[ atoms ]
;   nr       type  resnr residue  atom   cgnr     charge       mass  typeB    chargeB      massB
; residue   1 bic rtp bic  q -1.0
     1      OG311      1    BIC     O1      1       -0.6    15.9994   ; qtot -0.6
     2      OG2D2      1    BIC     O2      2      -0.76    15.9994   ; qtot -0.76
     3      OG2D2      1    BIC     O3      3      -0.76    15.9994   ; qtot -0.76
     4      CG2O6      1    BIC     C4      4       0.69     12.011   ; qtot 0.69
     5       HGP1      1    BIC     H5      5       0.43      1.008   ; qtot 0.43

[ bonds ]
;  ai    aj funct            c0            c1            c2            c3
    1     4     1
    1     5     1
    2     4     1
    3     4     1

[ pairs ]
;  ai    aj funct            c0            c1            c2            c3
    2     5     1
    3     5     1

[ angles ]
;  ai    aj    ak funct            c0            c1            c2            c3
    4     1     5     5
    1     4     2     5
    1     4     3     5
    2     4     3     5

[ dihedrals ]
;  ai    aj    ak    al funct            c0            c1            c2            c3            c4            c5
    5     1     4     2     9
    5     1     4     3     9

[ dihedrals ]
;  ai    aj    ak    al funct            c0            c1            c2            c3            c4            c5
    4     2     3     1     2
